13
    Energy:       -192.689150787606
    C    -1.77571556564995    0.4171726913328929    0.17266747524716017
    C    -0.8173707808878603    1.232159777758243    -0.22073781746393092
    C    0.6339809413363902    1.070544879487303    0.09524143724184764
    C    1.3032664897550201    -0.06546852594889711    0.14677116123953737
    C    0.7493345320871599    -1.4556998606273364    -0.14194169482621166
    H    0.4833533842285407    -1.9667267082266464    0.7805349753182684
    H    1.4968784960735395    -2.057645559534187    -0.6491974429248822
    H    -0.13619559134603093    -1.395510002497167    -0.7638001310782914
    H    -2.8114902613586503    0.5951440197039033    -0.08170130993918923
    H    -1.576841310568519    -0.45239809008876686    0.7805632944246801
    H    -1.0695536022295205    2.114866595512123    -0.7948824993588013
    H    1.1649469943211608    1.994711758484893    0.27954471445719686
    H    2.35540627423872    -0.031150975356357045    0.3969378376626163
13
    Energy:       -192.688371275269
    C    -1.7596614454359965    0.37761366790649936    0.15213157079583015
    C    -0.8096847918951456    1.2350415640262908    -0.1661400690786599
    C    0.649179353568207    1.084347184720863    0.12092801590413955
    C    1.3194190463978421    -0.05328293479528044    0.11655577415448942
    C    0.7259434830796282    -1.4365353597078065    -0.12257197315246694
    H    0.4179101638765413    -1.8841809701358465    0.8203271687868047
    H    1.4517269825837344    -2.0958556562418207    -0.5855575941443993
    H    -0.14685094793689135    -1.3691376415292345    -0.7632140913550375
    H    -2.7830256993554827    0.5306026974359672    -0.16148663444029965
    H    -1.5704541050319967    -0.508213706326271    0.738393014467044
    H    -1.0713790717001275    2.136043556203139    -0.707786181253503
    H    1.1875798226609406    2.0084056629997704    0.27894713252304887
    H    2.389297209188749    -0.02484806455626746    0.2794738667930103
13
    Energy:       -192.685682207797
    C    -1.7472194491437936    0.3399910713236603    0.12847581609719824
    C    -0.8039519044497799    1.2324921705919176    -0.1054989990301903
    C    0.6625717063078902    1.0923539612163822    0.14827480734743684
    C    1.336821930473319    -0.042783264180341715    0.08432460017643315
    C    0.7053500236876589    -1.417673204448564    -0.09892365114258682
    H    0.36656641559202774    -1.799963775571189    0.862376991263045
    H    1.410608596071545    -2.1283312158580343    -0.5195193858100923
    H    -0.15519126132135524    -1.3472044898186974    -0.7515571033042017
    H    -2.7482824870534084    0.4788362867090386    -0.2552447566238675
    H    -1.5808643427984401    -0.5625040594937283    0.6955123509076188
    H    -1.0707721933624823    2.153044473242978    -0.6083718506614176
    H    1.207364377151872    2.019579877528166    0.27553347318414184
    H    2.4169985888449443    -0.01783783124158665    0.1446177075964829
13
    Energy:       -192.680484216109
    C    -1.731259225439258    0.29873989068732126    0.09789840011200178
    C    -0.7939754711978226    1.2191435374768205    -0.04858271729749249
    C    0.674058589191944    1.0981002041463523    0.17508273880328326
    C    1.3517530422526343    -0.03347529356177575    0.05608743449844902
    C    0.6906531461433302    -1.3984433584967635    -0.06852744829168121
    H    0.32423595741826217    -1.7232642954112727    0.8992754508458426
    H    1.3691535380490718    -2.14535560437071    -0.4569690440237881
    H    -0.1722225356254555    -1.309570922915315    -0.7218970263902268
    H    -2.70219269594718    0.43316404319653223    -0.3582741904647264
    H    -1.6007679886173694    -0.6125646600807447    0.6585723703178804
    H    -1.0669622722376302    2.160188568031045    -0.503468256825646
    H    1.2225703337363616    2.026105091372276    0.2660937801407111
    H    2.4349555822731137    -0.012767200073762872    0.004708508575394516
13
    Energy:       -192.671988900755
    C    -1.6972938268347966    0.24889693842475583    0.057599903439647764
    C    -0.7743215799224178    1.1943001243441014    -0.02011932879721122
    C    0.6875741375650988    1.1015173854961953    0.19704205132983876
    C    1.3622441844786173    -0.025061409732615312    0.04974108925187635
    C    0.6695126761881748    -1.3693133162991546    -0.04802834362670222
    H    0.28369375676330155    -1.6838570669373374    0.9184757377758025
    H    1.3314935976628366    -2.1400358206421353    -0.42432752002765345
    H    -0.21190595473715043    -1.2253165054996151    -0.6624315476312547
    H    -2.642394396436164    0.37628802653063165    -0.44807964925207117
    H    -1.608202541810868    -0.6442548038759633    0.6517091231745669
    H    -1.0632346031110147    2.149974327784737    -0.4280527441656312
    H    1.2294173506960935    2.0279124565338487    0.25123082861424606
    H    2.43341719949829    -0.011050336127447581    -0.09475960008545498
13
    Energy:       -192.649206169623
    C    -1.6248650977401564    0.17244228443225182    -0.0033186675143854535
    C    -0.7405985852227055    1.1667288809143537    -0.017923142169232353
    C    0.6983899086636551    1.1021964594197242    0.21525388484378177
    C    1.3632216217755555    -0.032123735007908036    0.05998143168154951
    C    0.6475189260842705    -1.3372516292157808    -0.03509270622738924
    H    0.22937672329319614    -1.6764271704864546    0.901818117833121
    H    1.3073020778173754    -2.116976323582227    -0.4121200781188549
    H    -0.2994747110871082    -1.0752916641357435    -0.5767983933909994
    H    -2.5561238605940497    0.28766232387853646    -0.5290330882533901
    H    -1.6057372209166687    -0.6429325365148856    0.6955993186249021
    H    -1.0672494921067897    2.1276667737496613    -0.37596951394656253
    H    1.2322607896399302    2.0327191943078016    0.23576297033784338
    H    2.4159789203934956    -0.008412857759329765    -0.15816013370038456
13
    Energy:       -192.590527714769
    C    -1.5229221937112076    0.049725459314818116    -0.08815392086312179
    C    -0.695196794008853    1.1650497644867706    -0.012851377271777858
    C    0.6826723672355466    1.1114333086755537    0.22153831193616286
    C    1.3592341527107015    -0.06712758373709443    0.06796978447615665
    C    0.6927210867771595    -1.3293145678679934    -0.011399817543881028
    H    0.16905134489971868    -1.6783445561611705    0.8626035255097778
    H    1.346358584892774    -2.11976943087206    -0.3879633326614183
    H    -0.48568739039424835    -0.9044232435842599    -0.5354021460748655
    H    -2.4754333545225915    0.2140692227434581    -0.5747431525582326
    H    -1.6260023257729905    -0.597668463909179    0.7663440468446251
    H    -1.0795879570568747    2.122729304128206    -0.32802609412697087
    H    1.2329755516204062    2.034176814469868    0.22779123016738578
    H    2.401816927330462    -0.0005360276869195413    -0.20770705783383864
13
    Energy:       -192.634792387848
    C    -1.4785884903358253    -0.03649128172347119    -0.13063815243308013
    C    -0.6571471125909403    1.189923661742648    -0.010069372020395269
    C    0.6541676808483833    1.1301486037355246    0.2151839894326298
    C    1.369375536530677    -0.11607700458911725    0.05764841359698313
    C    0.8449670903284181    -1.3496223739237905    0.07616121800360286
    H    0.12790088683913903    -1.6771184750951775    0.805812738153501
    H    1.4124318462539838    -2.150581196304956    -0.35798722757449813
    H    -0.7108793093655221    -0.7954319976183084    -0.5687292488495981
    H    -2.4468009131879707    0.1886058721350783    -0.5863807408238458
    H    -1.6544167307830635    -0.5539742033357578    0.799775652537624
    H    -1.0916752754028314    2.13388982575513    -0.2880461380132205
    H    1.2342607965651073    2.032457422027885    0.2333155800679216
    H    2.396403994300443    0.004271147194316056    -0.24604671207762474
13
    Energy:       -192.669480868192
    C    -1.509751466218076    -0.03440896250756933    -0.13708498237054262
    C    -0.6444501769132525    1.2017086514910686    -0.02703299682010205
    C    0.6549791032854658    1.124116760549972    0.199953949912596
    C    1.406990333307125    -0.1406025732398018    0.06786851452694506
    C    0.9693844887774499    -1.3868228073922932    0.15872632905875134
    H    0.11330398835504285    -1.6958324914486391    0.7324606705259619
    H    1.5398395863207752    -2.188284474412938    -0.28231708264034594
    H    -0.9177411884164248    -0.771508702953694    -0.6732812188328209
    H    -2.4716676717020705    0.18420760271512632    -0.5911637968021383
    H    -1.677375855874978    -0.49285277444820025    0.8339952617599597
    H    -1.107990295156909    2.1517380062584412    -0.24680011489538897
    H    1.230658221897186    2.029712830332942    0.2481641908588591
    H    2.4138209323386617    0.01882893505558674    -0.2834887242817351
13
    Energy:       -192.679255016328
    C    -1.5464062097491464    -0.028552909342838276    -0.15779034230755745
    C    -0.6471670125057966    1.1911992601033579    -0.029143249523641928
    C    0.6582251078670472    1.1104164894066406    0.17972478984962703
    C    1.4413208731044298    -0.14955096703189452    0.0513603254457114
    C    1.0351430612248136    -1.3982196975197374    0.2067877065463984
    H    0.13691202651693887    -1.6840883975208665    0.7293075063508216
    H    1.6210004601737034    -2.213209933569543    -0.19402024898835568
    H    -1.0255273095059025    -0.7767250553463361    -0.7479675691163461
    H    -2.49712280891392    0.21214106678142364    -0.6135798867502043
    H    -1.7209207348935873    -0.4670567503014293    0.8188168031513005
    H    -1.1170788811787837    2.159215767912641    -0.16412390625000506
    H    1.2297925444682145    2.0244627830008692    0.26522219234293454
    H    2.4318288833919928    0.019968343427714086    -0.3445941207506824
13
    Energy:       -192.685225987352
    C    -1.5704550985605645    -0.02542299326756035    -0.19179361389124608
    C    -0.6500718598930683    1.173746588083112    -0.0014118844926619511
    C    0.6605153617033008    1.0959589543130763    0.15211934092212817
    C    1.4647495696203752    -0.15453386662344298    -0.004885955593314065
    C    1.0826654046198396    -1.392856648854219    0.24419622061496038
    H    0.1716254306127874    -1.6394865948813973    0.7665281094529831
    H    1.6810754072144234    -2.232145080968793    -0.08141912741971294
    H    -1.0741607983222905    -0.7819979218826303    -0.7856761079244418
    H    -2.4988787646950525    0.25543391845619234    -0.680146363533861
    H    -1.8097347810340367    -0.46356371956355635    0.7756188645771358
    H    -1.1232215405139134    2.1467758356170066    -0.01700979976632775
    H    1.2299477764057307    2.008467986289977    0.2777555535005207
    H    2.4359438928424697    0.009623543282241135    -0.4538752364461623
13
    Energy:       -192.688276452312
    C    -1.5971577278008113    -0.01651860038210558    -0.21901711228780782
    C    -0.6534558521228233    1.1533966751420601    0.03287701124102716
    C    0.6616729991844131    1.0781220566781307    0.12338217673191863
    C    1.4751248696138182    -0.16084583842573794    -0.068161080934664
    C    1.123311131952595    -1.3855115342145077    0.2714798038455294
    H    0.2146737822039865    -1.601038173146489    0.8119367821033963
    H    1.7411961012974029    -2.2370426710598275    0.02226563925619158
    H    -1.1001930604010872    -0.7863556249108363    -0.7995110256505705
    H    -2.4846040941030343    0.30731256639445015    -0.7513488495641436
    H    -1.9120545191425293    -0.4571359688433083    0.7249386163398643
    H    -1.1253006230071685    2.1231100293772247    0.12738515178207285
    H    1.2286042231361218    1.9849007907817657    0.2821702375868592
    H    2.428182769189114    -0.002393707390822121    -0.5583973504496736
13
    Energy:       -192.68915045404
    C    -1.6261426399807029    -0.003935947085826075    -0.24102949457553702
    C    -0.6594203564912543    1.1339365917776438    0.0646726939480638
    C    0.6573119269266166    1.0557038931014486    0.09625627171975033
    C    1.4800853191163232    -0.17179249474297306    -0.12408791911033926
    C    1.1680483844850325    -1.3817709394259527    0.2952492099379071
    H    0.26754415950990185    -1.5812025149074638    0.8561743635165742
    H    1.8132284563952246    -2.229754499771103    0.1111509076494251
    H    -1.1329183500379765    -0.7889707056128225    -0.8021823464102303
    H    -2.4677501865001803    0.3662748003663615    -0.8183214688072923
    H    -2.0189723140918323    -0.4362096622337003    0.6764127822957419
    H    -1.1219027542416848    2.0941525293644907    0.25143477947999865
    H    1.2264651598616907    1.9565743627472678    0.28203259832089256
    H    2.4144231950488417    -0.013005413577370633    -0.6477623779649547
