13
    Energy:       -192.590527714769
    C    -1.5229221937112076    0.049725459314818116    -0.08815392086312179
    C    -0.695196794008853    1.1650497644867706    -0.012851377271777858
    C    0.6826723672355466    1.1114333086755537    0.22153831193616286
    C    1.3592341527107015    -0.06712758373709443    0.06796978447615665
    C    0.6927210867771595    -1.3293145678679934    -0.011399817543881028
    H    0.16905134489971868    -1.6783445561611705    0.8626035255097778
    H    1.346358584892774    -2.11976943087206    -0.3879633326614183
    H    -0.48568739039424835    -0.9044232435842599    -0.5354021460748655
    H    -2.4754333545225915    0.2140692227434581    -0.5747431525582326
    H    -1.6260023257729905    -0.597668463909179    0.7663440468446251
    H    -1.0795879570568747    2.122729304128206    -0.32802609412697087
    H    1.2329755516204062    2.034176814469868    0.22779123016738578
    H    2.401816927330462    -0.0005360276869195413    -0.20770705783383864
