13
    Energy:       -192.518166217781
    C    -1.687074023725285    0.17231434759515846    -0.05220308443336566
    C    -0.7322787203729734    1.2148623562544079    -0.08696076970178633
    C    0.6565705138632992    1.0870187581055577    0.09754707394677532
    C    1.40987009830206    -0.09733256433345966    0.006545498175263527
    C    0.9247242339017123    -1.4253791378087721    0.06071046058799798
    H    0.2994824658974652    -1.7089640348401087    0.8930177553913402
    H    1.5482422669924785    -2.21507292396476    -0.3298030204473586
    H    -0.6293208097834674    -1.1229529816354304    -0.8430296412937881
    H    -2.6568960434440307    0.3613273485177303    -0.4868992046153393
    H    -1.7030789619465914    -0.47597583574097296    0.8099505712458304
    H    -1.1123487530460707    2.2090439084019846    -0.27867891919226434
    H    1.2027817924090456    1.9930857745522472    0.32306681105182133
    H    2.4793259409523585    0.008024984896417045    -0.1132635307151262
13
    Energy:       -192.527319479621
    C    -1.669138714511092    0.16144901187476368    -0.06018772447070491
    C    -0.731735280834493    1.2091654395266733    -0.08237581916416238
    C    0.6564190140863062    1.084094002241736    0.10677135685020735
    C    1.4053812001402082    -0.09628285035007074    0.011121271957392395
    C    0.9029381928930655    -1.4157382732324533    0.04889286251605161
    H    0.29636461904918737    -1.709215188338348    0.8916004257762864
    H    1.5495458628034888    -2.2160318882501784    -0.32851910724800204
    H    -0.6226238626076493    -1.1127237614654644    -0.8245463749951513
    H    -2.6578265887893937    0.3614130089795298    -0.4871525325746369
    H    -1.70180205167368    -0.4796618672608902    0.8080634541327447
    H    -1.110707956014063    2.2098928618903146    -0.2822741164335248
    H    1.203383191393867    1.9934581089897396    0.3166349623650839
    H    2.4798023740642483    0.010181395394647137    -0.1180286587115839
13
    Energy:       -192.536175977328
    C    -1.652643883266558    0.14830362737499897    -0.07028963311406465
    C    -0.7302429109702919    1.2045754700100568    -0.07727049039105749
    C    0.656512428088116    1.0815566262145027    0.11760701920232577
    C    1.401483924018465    -0.09407658942434134    0.01598664973609924
    C    0.8790231916035616    -1.4080948600335956    0.034109798089625026
    H    0.29237120256583515    -1.7091014582835222    0.8900585398307881
    H    1.548848695645631    -2.214780407604436    -0.32601506989166895
    H    -0.6142883137389742    -1.1004054835324504    -0.802399675096052
    H    -2.6557312354339895    0.3606383124682441    -0.4868665771954528
    H    -1.7000796437150738    -0.4842064205440361    0.8055916911344303
    H    -1.1083992460214012    2.2093837889034456    -0.28585734403272806
    H    1.204054273936548    1.9937762437817577    0.3091098992378085
    H    2.479091517288132    0.012431150669374901    -0.12376480751005284
13
    Energy:       -192.544359838508
    C    -1.6406941238066841    0.134527584317478    -0.0811994567490075
    C    -0.7279700726676035    1.201877849159127    -0.07236900946382618
    C    0.6569900784026514    1.0802925353131119    0.12872834309929546
    C    1.3988420419565006    -0.09131998403195667    0.020274680087959514
    C    0.8565097144445852    -1.4040848001462771    0.01835809358726084
    H    0.2878933757074895    -1.7083683822907532    0.8883834298624554
    H    1.5452147259302251    -2.210666171926663    -0.32248510998511243
    H    -0.6050583963403634    -1.0871968709835456    -0.7789359889281773
    H    -2.649729724744064    0.358614685780295    -0.48618217275080794
    H    -1.6980023818333112    -0.48915885822863414    0.8025639211344431
    H    -1.1055595943362924    2.207036529697131    -0.28868689562088623
    H    1.2047667404955493    1.9940607869970932    0.3014302966523238
    H    2.476797616791318    0.014385096343591756    -0.12988013092592052
13
    Energy:       -192.551824863874
    C    -1.6320009142165153    0.12107871975650697    -0.09201041454137901
    C    -0.7256741151963972    1.1998606373084597    -0.06779167951457848
    C    0.6578968290751025    1.0803516980850814    0.13972115213068614
    C    1.3967523630000211    -0.08911253660239159    0.02379975414342021
    C    0.8359918591599521    -1.4023682489149778    0.003089123907208167
    H    0.28311451847772257    -1.7069336553188312    0.8862345783802622
    H    1.5387133708633736    -2.204190063836719    -0.31853734316996973
    H    -0.5951866900162721    -1.0732656217543721    -0.7547043937629634
    H    -2.6404670836250594    0.35526466001444384    -0.4856157264158871
    H    -1.6955967368543259    -0.4943964906445374    0.7988873489231794
    H    -1.1023362158197807    2.2031703583081925    -0.2907062315893329
    H    1.2056490624381004    1.9945584043214084    0.29387010822674425
    H    2.4731437527140794    0.01598213927773477    -0.13623627671738975
13
    Energy:       -192.558386891401
    C    -1.624140744993443    0.10864913230810563    -0.1018884583777158
    C    -0.7240418719824148    1.196993075294198    -0.06352055975134502
    C    0.6591685812966249    1.0812236211164572    0.15031353901033456
    C    1.3942014384961865    -0.08815741143913682    0.026609530539686215
    C    0.8172401543669224    -1.4009331971428776    -0.01040357116105057
    H    0.2781184110465569    -1.7048461075931276    0.8832827028980209
    H    1.5298357039343018    -2.196280602018758    -0.31494436422789984
    H    -0.5848793163503022    -1.0585991450611372    -0.7299340036813962
    H    -2.6291390440481384    0.35065685372455807    -0.4857204611585413
    H    -1.6928605793275606    -0.4998660374785734    0.7945125474682321
    H    -1.0989214102036176    2.198339412242919    -0.29213138959947743
    H    1.2068810353136266    1.9956074810508337    0.2865672293353272
    H    2.468537642451259    0.017212924996537315    -0.1427427412941748
13
    Energy:       -192.564052785647
    C    -1.6152917891236214    0.09752376806326907    -0.11013911617513253
    C    -0.7231356788861659    1.1924774139848036    -0.05951054523317667
    C    0.6606064542694476    1.0821817005961751    0.1602795273639946
    C    1.3905351465278948    -0.08835298897902924    0.028865305570818817
    C    0.7998233099387893    -1.3982289173200824    -0.021236340072656314
    H    0.27284221479433846    -1.7022516997465802    0.8794182374855382
    H    1.519109024445386    -2.1878185592752404    -0.3124234820692763
    H    -0.5742923381454824    -1.0432320344902377    -0.7048450991770439
    H    -2.6168123298591635    0.3448688326186506    -0.48691141298783475
    H    -1.689730947064111    -0.5055812158797242    0.7894659864902458
    H    -1.0954904478050942    2.192930191170231    -0.29327411791638563
    H    1.2085863226080673    1.9974543910922637    0.2795960065785826
    H    2.4632510582997167    0.018029118165499975    -0.14928494985767385
13
    Energy:       -192.568825404495
    C    -1.6049588365351297    0.08763755843215221    -0.11632491390833588
    C    -0.7223746627184877    1.186608870327475    -0.05573416362845637
    C    0.6619577389601522    1.0827838494218203    0.1694141353170508
    C    1.3857781939611642    -0.08898111884349179    0.030775109170193247
    C    0.7834939294738686    -1.393611835571775    -0.02908188507825603
    H    0.2670864068345882    -1.6993745293394662    0.874885310320764
    H    1.5069549948571903    -2.1794485073080963    -0.31152509101558695
    H    -0.5635966954656381    -1.027354146507547    -0.6798305774680098
    H    -2.604134367919085    0.3379295262028811    -0.4893960771598153
    H    -1.6861036759586823    -0.51161612706575    0.7839198269986859
    H    -1.0921740262100015    2.187024209799752    -0.29441983420406137
    H    1.2107233618564686    2.000069674281937    0.27301181155850895
    H    2.457347638863594    0.018332576170107837    -0.15569365090268106
13
    Energy:       -192.572679118374
    C    -1.5937547698107941    0.07883274226117808    -0.12035256348601593
    C    -0.7209565387770656    1.1803852027196506    -0.052136901179713854
    C    0.6631004821857037    1.0831356506881036    0.1776549710713643
    C    1.3804674692915413    -0.08915463546894561    0.03258488255997243
    C    0.7683010981095919    -1.3872848275193626    -0.03417229736165721
    H    0.26053355651629634    -1.6964436150907    0.8701975836974344
    H    1.4934802193861556    -2.171403740917897    -0.31257249903655104
    H    -0.5529494038843835    -1.0112084517932627    -0.6553333421776806
    H    -2.5911730214216284    0.3297440477539386    -0.493201029668603
    H    -1.6818316089963021    -0.5181751828760671    0.7781670947756322
    H    -1.0890205459210704    2.1804250581860547    -0.2958044358668028
    H    1.2130790307317316    2.0031255211847387    0.2667937062252084
    H    2.4507240325902253    0.018022230872569326    -0.16182516955258722
13
    Energy:       -192.575763804756
    C    -1.5826676852890407    0.07106493747132703    -0.12241369497756682
    C    -0.7183538072043777    1.1748565308605978    -0.04862095933164923
    C    0.6641795349586129    1.083847504410292    0.1850575619776713
    C    1.3752927591703512    -0.08827283025520391    0.034554195728206324
    C    0.7544578086061068    -1.3798724840761405    -0.03703168370281459
    H    0.25283492034370836    -1.6936364115019265    0.8659543937265612
    H    1.4785822658329026    -2.163635613536991    -0.3157022514340433
    H    -0.5424684460051273    -0.9950515623525081    -0.63179050585533
    H    -2.5776935647397665    0.3201374417505226    -0.49831447960033787
    H    -1.6767965116373864    -0.5255504524275583    0.7726425725717333
    H    -1.0860466727412628    2.17291305917523    -0.29758777312712303
    H    1.215363241783617    2.0061563216855927    0.2608843501672854
    H    2.4433161569216644    0.017043558796765074    -0.16763172614259267
13
    Energy:       -192.578401237979
    C    -1.5723243046721773    0.06451851061198996    -0.12275689033803466
    C    -0.7146309637108181    1.1705921144352014    -0.045054874405305825
    C    0.6655333091446702    1.0856122287088055    0.1917048432890667
    C    1.3707426596523502    -0.08619104902785772    0.03694093835125391
    C    0.7422049512661818    -1.3720386870852308    -0.0381218969373147
    H    0.24376702640026449    -1.691055278441308    0.8626524673113355
    H    1.4621840295619848    -2.1560443173393766    -0.32093794018322624
    H    -0.5323250358304785    -0.9791699940478866    -0.6097268248948501
    H    -2.5635607076260603    0.3089904117620341    -0.5047678035550158
    H    -1.6709664055475142    -0.5339900010241397    0.767851463788117
    H    -1.0833072000510173    2.1645166765379207    -0.29989025222022464
    H    1.217367393874547    2.008835535396882    0.25525533664731515
    H    2.4353152475380697    0.015423849512964136    -0.17314856685311608
13
    Energy:       -192.580818068516
    C    -1.5627160727449274    0.059466506117517116    -0.12148676208189055
    C    -0.7103535804363884    1.1675465489188357    -0.04127336898854786
    C    0.6674696777611476    1.0887281203187968    0.19766389032618775
    C    1.3669512766628034    -0.08316357425784279    0.039982011142582936
    C    0.7316039684500126    -1.3642111268604444    -0.03762334748521766
    H    0.23332518578482658    -1.6887120832344538    0.8605262406158557
    H    1.4444061355376643    -2.148646585634284    -0.32822909537641737
    H    -0.5227384418270289    -0.9638612904419128    -0.5897368336110584
    H    -2.5489283873597226    0.2963144886886396    -0.5126642721922956
    H    -1.664408490740962    -0.5435662296039697    0.7642241997262934
    H    -1.0809293814851215    2.1556202732609955    -0.3028167991658163
    H    1.2191018220255905    2.0112093883690676    0.2499219803406676
    H    2.4272162883721085    0.013275564359052907    -0.17848784325034325
13
    Energy:       -192.583093689613
    C    -1.5536794138928873    0.056210097377343775    -0.11834744456145456
    C    -0.7061779612503363    1.1653466379454456    -0.037051186476209946
    C    0.6700809757583795    1.092933878702599    0.20303695691368437
    C    1.3637928925651708    -0.07959054421943076    0.04388621360071198
    C    0.7227198583780351    -1.3566277100379733    -0.03528792356776581
    H    0.2216513239956693    -1.6865267438163634    0.8595252083488454
    H    1.4254291510227324    -2.141549249683974    -0.3375304666283909
    H    -0.5139396463963294    -0.9494501601187146    -0.5725451532995998
    H    -2.534055155292835    0.282151105444738    -0.5221897175050945
    H    -1.657199316860404    -0.5541919157855782    0.761951676918222
    H    -1.0790839481320997    2.146801679374945    -0.30649857886335385
    H    1.220835352656194    2.013753518201244    0.24488452170156824
    H    2.419625887448713    0.010739406615716185    -0.183834106581162
13
    Energy:       -192.585219347783
    C    -1.5449671517186205    0.05434069004463159    -0.11314913565526714
    C    -0.702501059467085    1.163808878125972    -0.03218956277541902
    C    0.6731125328161532    1.0975891355576095    0.20791423474638993
    C    1.3612385045454283    -0.07593391729326258    0.04874065382285963
    C    0.7149521722675132    -1.3492362125289217    -0.03102121839307919
    H    0.20907951068138486    -1.6844190913329746    0.8594219328472658
    H    1.4057757886242372    -2.135040549269011    -0.3486343783074798
    H    -0.5059938811014708    -0.9361838373864906    -0.5585673200341629
    H    -2.5192909744197043    0.266686471609481    -0.5334052247672117
    H    -1.6495175408866698    -0.5654438069753752    0.761046712813925
    H    -1.0779612432137062    2.138738460422852    -0.3109796938784446
    H    1.2229427680320863    2.017111682388061    0.24017108178574548
    H    2.413130573840456    0.007982096637426238    -0.1893480822051205
13
    Energy:       -192.58718454587
    C    -1.5366702794243776    0.05302094374400728    -0.10598601695706743
    C    -0.6994193420003054    1.163099760768477    -0.026549291895007744
    C    0.6762299757347418    1.102180024957513    0.21245417102019162
    C    1.359482161934645    -0.07255694238438028    0.054492436058080074
    C    0.7075346041998445    -1.3420248024124461    -0.02510784969521894
    H    0.19596978143517707    -1.6823457351057618    0.8599787809037008
    H    1.3859604933909289    -2.1293282000674436    -0.36114062139528524
    H    -0.4987922810373004    -0.9242221155312006    -0.5478809708784682
    H    -2.504761981542085    0.2501189084825431    -0.546161090538073
    H    -1.641592200458172    -0.5767481856736064    0.7614481425634662
    H    -1.0776831174195658    2.1319405295649023    -0.3161948948392968
    H    1.2256943978632746    2.021723248801106    0.2357835120517525
    H    2.4080477873231967    0.005142564856287099    -0.19513630639877252
13
    Energy:       -192.588965262624
    C    -1.5292112589376456    0.051546137969720095    -0.0973860053650716
    C    -0.6969463944122697    1.163497998654082    -0.020087507991133558
    C    0.6793485088473077    1.106682655301426    0.2169030638002232
    C    1.358789681868641    -0.06963377528693479    0.06097356733514023
    C    0.7000862659152703    -1.335251381875827    -0.018266492755065374
    H    0.18258134680647106    -1.6803115248490872    0.8610596032600044
    H    1.3661932758591346    -2.1243359630565504    -0.3744647937835524
    H    -0.4921103387081435    -0.9136362874701938    -0.5402791328643947
    H    -2.4902629667846536    0.23257268668870432    -0.560088364832524
    H    -1.6336720114690442    -0.5875998155313631    0.7631681300738288
    H    -1.0782542910791955    2.1266175933242453    -0.3219633986822126
    H    1.2291031699083452    2.027552874468332    0.23167912076199038
    H    2.4043550121857846    0.0022988016634436365    -0.2012477889572313
13
    Energy:       -192.590527714769
    C    -1.5229221937112076    0.049725459314818116    -0.08815392086312179
    C    -0.695196794008853    1.1650497644867706    -0.012851377271777858
    C    0.6826723672355466    1.1114333086755537    0.22153831193616286
    C    1.3592341527107015    -0.06712758373709443    0.06796978447615665
    C    0.6927210867771595    -1.3293145678679934    -0.011399817543881028
    H    0.16905134489971868    -1.6783445561611705    0.8626035255097778
    H    1.346358584892774    -2.11976943087206    -0.3879633326614183
    H    -0.48568739039424835    -0.9044232435842599    -0.5354021460748655
    H    -2.4754333545225915    0.2140692227434581    -0.5747431525582326
    H    -1.6260023257729905    -0.597668463909179    0.7663440468446251
    H    -1.0795879570568747    2.122729304128206    -0.32802609412697087
    H    1.2329755516204062    2.034176814469868    0.22779123016738578
    H    2.401816927330462    -0.0005360276869195413    -0.20770705783383864
13
    Energy:       -192.590527714769
    C    -1.5229221937112076    0.049725459314818116    -0.08815392086312179
    C    -0.695196794008853    1.1650497644867706    -0.012851377271777858
    C    0.6826723672355466    1.1114333086755537    0.22153831193616286
    C    1.3592341527107015    -0.06712758373709443    0.06796978447615665
    C    0.6927210867771595    -1.3293145678679934    -0.011399817543881028
    H    0.16905134489971868    -1.6783445561611705    0.8626035255097778
    H    1.346358584892774    -2.11976943087206    -0.3879633326614183
    H    -0.48568739039424835    -0.9044232435842599    -0.5354021460748655
    H    -2.4754333545225915    0.2140692227434581    -0.5747431525582326
    H    -1.6260023257729905    -0.597668463909179    0.7663440468446251
    H    -1.0795879570568747    2.122729304128206    -0.32802609412697087
    H    1.2329755516204062    2.034176814469868    0.22779123016738578
    H    2.401816927330462    -0.0005360276869195413    -0.20770705783383864
